# Test data   
# Time        	data    
0             N/A
1               1
2               2
3               3


