# Test data   
# Time        	data    
2             	20
3               30
4               40
