# Residuals     
# Time          	p               	Ux              	Uz              	e               	k               	omega           
0.006           	N/A	N/A	N/A	N/A	N/A
0.00602         	5.36216089e-03	3.55661427e-03	5.29599911e-03	4.47947886e-03	2.07378145e-04	9.59275560e-05
0.00604         	5.62874919e-03	3.54232927e-03	5.26583734e-03	5.32105464e-03	2.08621607e-04	9.58959887e-05
0.00606         	5.60456475e-03	3.52902742e-03	5.23462523e-03	5.30128931e-03	2.08901261e-04	9.54093176e-05
0.00608         	5.58032541e-03	3.51592046e-03	5.20413932e-03	5.28011640e-03	2.09115236e-04	9.48675468e-05
0.0061          	5.55381844e-03	3.50345069e-03	5.17508060e-03	5.25843643e-03	2.09502939e-04	9.42788307e-05
0.00612         	5.52555090e-03	3.49055451e-03	5.14523254e-03	5.23583385e-03	2.10364630e-04	9.37073575e-05
0.00614         	5.49802366e-03	3.47662724e-03	5.11398933e-03	5.21103250e-03	2.11803858e-04	9.31841045e-05
0.00616         	5.46967614e-03	3.46183264e-03	5.08301512e-03	5.18613946e-03	2.13731248e-04	9.27663319e-05
0.00618         	5.44040014e-03	3.44706008e-03	5.05166223e-03	5.16161617e-03	2.15993395e-04	9.23718809e-05
0.0062          	5.41212968e-03	3.43220121e-03	5.01833532e-03	5.13602416e-03	2.18805796e-04	9.20179538e-05
0.00622         	5.38427839e-03	3.41810447e-03	4.98245556e-03	5.11204446e-03	2.22392631e-04	9.16588734e-05
0.00624         	5.35808384e-03	3.40542589e-03	4.95204420e-03	5.08934476e-03	2.27153159e-04	9.14377880e-05
0.00626         	5.32959764e-03	3.39481155e-03	4.92405958e-03	5.06389561e-03	2.32915714e-04	9.12620181e-05
0.00628         	5.29970189e-03	3.38362497e-03	4.89980101e-03	5.03670118e-03	2.40255525e-04	9.11104298e-05
0.0063          	5.26995383e-03	3.37244255e-03	4.87256647e-03	5.01172678e-03	2.49802928e-04	9.10316900e-05
0.00632         	5.24105149e-03	3.36107744e-03	4.84520060e-03	4.98538540e-03	2.62447325e-04	9.11213390e-05
0.00634         	5.21335647e-03	3.35038000e-03	4.81586602e-03	4.96132234e-03	2.79437878e-04	9.12209524e-05
0.00636         	5.18535897e-03	3.34100967e-03	4.78817587e-03	4.93672884e-03	3.02563453e-04	9.11895623e-05
0.00638         	5.15621935e-03	3.33108199e-03	4.76275219e-03	4.91189201e-03	3.16924872e-04	9.10832813e-05
0.0064          	5.12751694e-03	3.32081285e-03	4.73839910e-03	4.88624315e-03	3.19046587e-04	9.10188105e-05
0.00642         	5.09814168e-03	3.31061864e-03	4.71455534e-03	4.85735538e-03	3.19500103e-04	9.09959075e-05
0.00644         	5.06763380e-03	3.29979570e-03	4.68875051e-03	4.82878171e-03	3.18282524e-04	9.09817971e-05
0.00646         	5.03808532e-03	3.28894314e-03	4.66528453e-03	4.80103891e-03	3.15683412e-04	9.10335520e-05
0.00648         	5.01078094e-03	3.27830872e-03	4.64271701e-03	4.77441004e-03	3.11807122e-04	9.10658884e-05
0.0065          	4.98261096e-03	3.26828290e-03	4.62142404e-03	4.74918360e-03	3.06143642e-04	9.08683958e-05
0.00652         	4.95604198e-03	3.25903246e-03	4.59817661e-03	4.72430844e-03	3.00948565e-04	9.06697693e-05
0.00654         	4.92866784e-03	3.25004918e-03	4.57601005e-03	4.69805027e-03	2.95274207e-04	9.04284936e-05
0.00656         	4.89823247e-03	3.24305695e-03	4.55469648e-03	4.66893330e-03	2.89208595e-04	9.04244082e-05
0.00658         	4.86964247e-03	3.23405637e-03	4.53302928e-03	4.63872366e-03	2.83238375e-04	9.06978683e-05
0.0066          	4.83994793e-03	3.22595528e-03	4.50918590e-03	4.61106623e-03	2.77728121e-04	9.09554071e-05
0.00662         	4.80726366e-03	3.21660450e-03	4.48780549e-03	4.58034664e-03	2.72542499e-04	9.11309715e-05
0.00664         	4.77743868e-03	3.20669409e-03	4.46951857e-03	4.55209270e-03	2.67483749e-04	9.12143043e-05
0.00666         	4.74889243e-03	3.19767754e-03	4.45026186e-03	4.52439248e-03	2.63310776e-04	9.13172330e-05
0.00668         	4.71859287e-03	3.18938234e-03	4.43135982e-03	4.49507191e-03	2.59131669e-04	9.14300946e-05
0.0067          	4.68558424e-03	3.18149019e-03	4.41039300e-03	4.46328726e-03	2.54934032e-04	9.14966072e-05
0.00672         	4.65100045e-03	3.17298734e-03	4.39003260e-03	4.43054571e-03	2.50679681e-04	9.15112022e-05
0.00674         	4.61732647e-03	3.16361258e-03	4.36825075e-03	4.39675111e-03	2.46283183e-04	9.14862236e-05
0.00676         	4.58227188e-03	3.15382376e-03	4.34991045e-03	4.36332160e-03	2.42171465e-04	9.14396093e-05
0.00678         	4.54665393e-03	3.14252242e-03	4.33054102e-03	4.33158215e-03	2.38723097e-04	9.13671777e-05
0.0068          	4.51179229e-03	3.13137524e-03	4.31061086e-03	4.29905259e-03	2.35643774e-04	9.12938393e-05
0.00682         	4.47807123e-03	3.12078584e-03	4.29234175e-03	4.26445695e-03	2.32816919e-04	9.12257390e-05
0.00684         	4.44258563e-03	3.11042725e-03	4.27331923e-03	4.22772565e-03	2.30721924e-04	9.11388742e-05
0.00686         	4.40751125e-03	3.10023961e-03	4.25324869e-03	4.19189959e-03	2.29045601e-04	9.11764020e-05
0.00688         	4.37276426e-03	3.09162014e-03	4.23510684e-03	4.15603701e-03	2.27364034e-04	9.10561543e-05
0.0069          	4.33771617e-03	3.08092702e-03	4.21678319e-03	4.12038307e-03	2.25805115e-04	9.08278167e-05
0.00692         	4.30249598e-03	3.07086466e-03	4.20091224e-03	4.08703862e-03	2.24390341e-04	9.05709378e-05
0.00694         	4.26813179e-03	3.06045201e-03	4.18721229e-03	4.05365883e-03	2.23146966e-04	9.03140586e-05
0.00696         	4.23310012e-03	3.04815148e-03	4.17070905e-03	4.01858682e-03	2.22074450e-04	9.00828504e-05
0.00698         	4.20022774e-03	3.03654436e-03	4.15231360e-03	3.98538487e-03	2.20955010e-04	8.97743067e-05
0.007           	4.16810769e-03	3.02524837e-03	4.13360234e-03	3.95511350e-03	2.20182722e-04	8.94829082e-05
0.00702         	4.13469714e-03	3.01395128e-03	4.11700013e-03	3.92351479e-03	2.19463981e-04	8.91777815e-05
0.00704         	4.10080506e-03	3.00162406e-03	4.10257491e-03	3.89065724e-03	2.18195375e-04	8.88588480e-05
0.00706         	4.06746182e-03	2.98955437e-03	4.08974826e-03	3.85851053e-03	2.17091614e-04	8.84825840e-05
0.00708         	4.03624014e-03	2.97749464e-03	4.07518990e-03	3.82699087e-03	2.16408759e-04	8.80766647e-05
0.0071          	4.00444838e-03	2.96499091e-03	4.05600641e-03	3.79538056e-03	2.15805797e-04	8.76074901e-05
0.00712         	3.97258772e-03	2.95262937e-03	4.03689696e-03	3.76531715e-03	2.15047060e-04	8.71560783e-05
0.00714         	3.93963768e-03	2.94011317e-03	4.01690516e-03	3.73436684e-03	2.13789051e-04	8.66338193e-05
0.00716         	3.91134636e-03	2.92699783e-03	3.99767084e-03	3.70606822e-03	2.12175741e-04	8.59748651e-05
0.00718         	3.88377908e-03	2.91332462e-03	3.97636974e-03	3.67845120e-03	2.10632728e-04	8.53580705e-05
0.0072          	3.85714344e-03	2.89912833e-03	3.95762867e-03	3.65204113e-03	2.09156609e-04	8.47742094e-05
0.00722         	3.83021927e-03	2.88581854e-03	3.93670741e-03	3.62543060e-03	2.07729481e-04	8.41925662e-05
0.00724         	3.80289806e-03	2.87177787e-03	3.91552495e-03	3.59770511e-03	2.06338571e-04	8.35169279e-05
0.00726         	3.77635624e-03	2.86102301e-03	3.89438979e-03	3.57298494e-03	2.05037474e-04	8.28728109e-05
0.00728         	3.75181691e-03	2.84975602e-03	3.87161337e-03	3.55093539e-03	2.03710441e-04	8.22368681e-05
0.0073          	3.72648278e-03	2.83835854e-03	3.84680878e-03	3.52714852e-03	2.02431238e-04	8.17309327e-05
0.00732         	3.70092854e-03	2.82671113e-03	3.81987663e-03	3.50451003e-03	2.01206228e-04	8.12294931e-05
0.00734         	3.67517363e-03	2.81439895e-03	3.79295603e-03	3.48372519e-03	2.00136443e-04	8.08613580e-05
0.00736         	3.64944237e-03	2.80074244e-03	3.76607079e-03	3.46133793e-03	1.99187857e-04	8.06127091e-05
0.00738         	3.62547587e-03	2.78619607e-03	3.74227549e-03	3.43963503e-03	1.98231933e-04	8.03922451e-05
0.0074          	3.60434402e-03	2.77262163e-03	3.71895917e-03	3.41988611e-03	1.97350436e-04	8.02076110e-05
0.00742         	3.58328044e-03	2.76010361e-03	3.69552771e-03	3.39941547e-03	1.96554662e-04	8.00764041e-05
0.00744         	3.56293303e-03	2.74768902e-03	3.67137242e-03	3.37780143e-03	1.95815947e-04	7.99654102e-05
0.00746         	3.54193467e-03	2.73466498e-03	3.64608367e-03	3.35727329e-03	1.95110416e-04	7.98790178e-05
0.00748         	3.52099892e-03	2.72148426e-03	3.61858562e-03	3.33718885e-03	1.94501927e-04	7.97779399e-05
0.0075          	3.50191595e-03	2.70812413e-03	3.59063510e-03	3.31724016e-03	1.93817725e-04	7.96235565e-05
0.00752         	3.48142136e-03	2.69360170e-03	3.56494747e-03	3.29759938e-03	1.93141266e-04	7.94563194e-05
0.00754         	3.46246703e-03	2.67896751e-03	3.54494413e-03	3.28059155e-03	1.92520903e-04	7.92831429e-05
0.00756         	3.44494934e-03	2.66597517e-03	3.52563116e-03	3.26433992e-03	1.92049643e-04	7.91097874e-05
0.00758         	3.42653370e-03	2.65417009e-03	3.51085701e-03	3.24691197e-03	1.91740432e-04	7.89796343e-05
0.0076          	3.40735269e-03	2.64322381e-03	3.49426402e-03	3.22757751e-03	1.91450722e-04	7.88347055e-05
0.00762         	3.38772086e-03	2.63242602e-03	3.47574652e-03	3.20765812e-03	1.91239114e-04	7.86513312e-05
0.00764         	3.36832406e-03	2.62060623e-03	3.45545188e-03	3.18616483e-03	1.90973166e-04	7.84190906e-05
0.00766         	3.34800668e-03	2.60917994e-03	3.43667479e-03	3.16411915e-03	1.90789373e-04	7.82208046e-05
0.00768         	3.32602313e-03	2.59718111e-03	3.41780676e-03	3.14192791e-03	1.90535711e-04	7.80453745e-05
0.0077          	3.30264887e-03	2.58476723e-03	3.39926730e-03	3.12174120e-03	1.90274074e-04	7.78639979e-05
0.00772         	3.28307607e-03	2.57181251e-03	3.38145542e-03	3.10046014e-03	1.90082246e-04	7.77008610e-05
0.00774         	3.26307962e-03	2.55801409e-03	3.36316872e-03	3.08019499e-03	1.89830949e-04	7.75914992e-05
0.00776         	3.24214521e-03	2.54548297e-03	3.34556751e-03	3.05982871e-03	1.89593961e-04	7.75226811e-05
