# Test data   
# Time        	data    
5               5
6               6
7               7
8               8


